ITEM: TIMESTEP
0
ITEM: NUMBER OF ATOMS
0
ITEM: BOX BOUNDS pp pp fm
-1.0000000000000000e+01 1.0000000000000000e+01
-1.0000000000000000e+01 1.0000000000000000e+01
-5.0000000000000000e-01 1.6000000000000000e+01
ITEM: ATOMS id type xs ys zs
ITEM: TIMESTEP
1000
ITEM: NUMBER OF ATOMS
402
ITEM: BOX BOUNDS pp pp fm
-1.0000000000000000e+01 1.0000000000000000e+01
-1.0000000000000000e+01 1.0000000000000000e+01
-5.0000000000000000e-01 1.6000000000000000e+01
ITEM: ATOMS id type xs ys zs
1 1 0.439067 0.591622 0.582145
2 1 0.0544323 0.744386 0.767356
3 1 0.422006 0.0628532 0.61852
4 1 0.231346 0.538797 0.894585
5 1 0.840922 0.0688118 0.558411
6 1 0.608346 0.772713 0.795431
7 1 0.144874 0.695735 0.620384
8 1 0.290602 0.145836 0.58734
9 1 0.176986 0.401644 0.556984
10 1 0.650377 0.679747 0.780028
11 1 0.765253 0.908936 0.878935
12 1 0.264187 0.788713 0.729018
13 1 0.525919 0.516009 0.853258
14 1 0.448627 0.169137 0.851754
15 1 0.329212 0.166653 0.897889
16 1 0.835889 0.0832998 0.726075
17 1 0.713572 0.803124 0.718418
18 1 0.388089 0.611194 0.680257
19 1 0.578193 0.68959 0.512395
20 1 0.739723 0.230761 0.491462
21 1 0.756711 0.448416 0.521793
22 1 0.327423 0.703144 0.869969
23 1 0.367647 0.837998 0.449002
24 1 0.313267 0.375642 0.503068
25 1 0.908716 0.0839797 0.871503
26 1 0.224589 0.365044 0.907713
27 1 0.868099 0.53256 0.728367
28 1 0.813143 0.291482 0.732083
29 1 0.843084 0.416795 0.655932
30 1 0.300532 0.542664 0.878701
31 1 0.94342 0.159789 0.42605
32 1 0.453728 0.40239 0.895848
33 1 0.498141 0.752732 0.658486
34 1 0.524584 0.581827 0.796649
35 1 0.696966 0.711861 0.70574
36 1 0.9108 0.920054 0.632881
37 1 0.28904 0.896522 0.560657
38 1 0.462327 0.934734 0.58523
39 1 0.253948 0.60943 0.493413
40 1 0.572025 0.519762 0.778379
41 1 0.939203 0.376957 0.792424
42 1 0.622156 0.684022 0.630348
43 1 0.240024 0.583262 0.595687
44 1 0.736362 0.434188 0.908701
45 1 0.584346 0.608591 0.453842
46 1 0.417282 0.75166 0.697252
47 1 0.515958 0.504432 0.731138
48 1 0.295653 0.434834 0.456318
49 1 0.139712 0.339134 0.760716
50 1 0.584826 0.570397 0.891621
51 1 0.121436 0.0828372 0.519789
52 1 0.279097 0.282472 0.763085
53 1 0.161781 0.448561 0.697165
54 1 0.197249 0.760509 0.773997
55 1 0.475209 0.536237 0.816474
56 1 0.920851 0.637179 0.892669
57 1 0.198218 0.85586 0.807094
58 1 0.480112 0.136241 0.550176
59 1 0.816114 0.730622 0.741662
60 1 0.795756 0.5663 0.700483
61 1 0.331507 0.945393 0.672715
62 1 0.162017 0.822551 0.859288
63 1 0.328123 0.767649 0.822555
64 1 0.910921 0.245261 0.690124
65 1 0.222705 0.195431 0.734985
66 1 0.53062 0.327548 0.49213
67 1 0.591269 0.865471 0.887708
68 1 0.7255 0.572134 0.789072
69 1 0.148435 0.249161 0.887066
70 1 0.823945 0.936231 0.873408
71 1 0.274993 0.605547 0.723667
72 1 0.703309 0.213903 0.769125
73 1 0.230199 0.146747 0.830253
74 1 0.445284 0.688758 0.595179
75 1 0.816618 0.203816 0.894876
76 1 0.78006 0.474206 0.880375
77 1 0.556536 0.301369 0.418817
78 1 0.579454 0.288252 0.820886
79 1 0.514787 0.628541 0.758483
80 1 0.834305 0.470396 0.83415
81 1 0.590098 0.0797745 0.694142
82 1 0.552084 0.170201 0.886179
83 1 0.121429 0.865587 0.785615
84 1 0.867795 0.827559 0.908475
85 1 0.433375 0.32572 0.860667
86 1 0.689196 0.612709 0.760422
87 1 0.910694 0.938475 0.843614
88 1 0.679679 0.858881 0.760727
89 1 0.554649 0.0882742 0.858343
90 1 0.143709 0.915533 0.478267
91 1 0.433746 0.272398 0.606914
92 1 0.871645 0.740089 0.551873
93 1 0.239508 0.911005 0.418125
94 1 0.747049 0.0511729 0.481012
95 1 0.168524 0.383159 0.772985
96 1 0.780944 0.921492 0.648634
97 1 0.500739 0.327711 0.877204
98 1 0.783776 0.815688 0.684902
99 1 0.774054 0.329886 0.761043
100 1 0.853932 0.931987 0.443772
101 1 0.412661 0.497526 0.889804
102 1 0.232696 0.72163 0.598332
103 1 0.122995 0.175886 0.638076
104 1 0.852373 0.836227 0.598688
105 1 0.404067 0.949298 0.641504
106 1 0.306431 0.691058 0.561381
107 1 0.858838 0.587298 0.775068
108 1 0.548703 0.945862 0.567387
109 1 0.104029 0.911349 0.848908
110 1 0.551964 0.85737 0.479112
111 1 0.827926 0.35833 0.585253
112 1 0.94876 0.800947 0.637179
113 1 0.113165 0.563453 0.553699
114 1 0.613396 0.14861 0.814209
115 1 0.769922 0.180538 0.780782
116 1 0.122044 0.400496 0.881826
117 1 0.487059 0.80251 0.858806
118 1 0.944256 0.70952 0.836464
119 1 0.66048 0.393075 0.735764
120 1 0.0600561 0.762132 0.575356
121 1 0.486356 0.679971 0.734028
122 1 0.830588 0.085115 0.869945
123 1 0.3804 0.0783924 0.79239
124 1 0.825772 0.150658 0.873861
125 1 0.056866 0.246875 0.657912
126 1 0.911337 0.946125 0.492768
127 1 0.934443 0.478541 0.816306
128 1 0.736267 0.635648 0.784311
129 1 0.597898 0.679066 0.889636
130 1 0.729512 0.514456 0.636215
131 1 0.69326 0.526404 0.820068
132 1 0.655264 0.929945 0.706668
133 1 0.311728 0.608796 0.449326
134 1 0.53243 0.145124 0.532194
135 1 0.538789 0.823324 0.83371
136 1 0.403065 0.314073 0.716722
137 1 0.890313 0.387565 0.543674
138 1 0.795046 0.34093 0.885675
139 1 0.157326 0.27368 0.657143
140 1 0.87616 0.122112 0.871778
141 1 0.26644 0.861333 0.760325
142 1 0.553587 0.239442 0.900498
143 1 0.555958 0.481046 0.643321
144 1 0.616247 0.371284 0.654993
145 1 0.588212 0.777112 0.569382
146 1 0.793753 0.205183 0.60178
147 1 0.35807 0.0758874 0.690426
148 1 0.194219 0.24177 0.808999
149 1 0.832826 0.803182 0.813179
150 1 0.438637 0.570979 0.72232
151 1 0.445706 0.574471 0.852933
152 1 0.391705 0.178282 0.686599
153 1 0.650876 0.072382 0.887826
154 1 0.536965 0.772494 0.772973
155 1 0.825245 0.289608 0.577688
156 1 0.280789 0.820696 0.562469
157 1 0.557508 0.441912 0.798006
158 1 0.442283 0.642688 0.900886
159 1 0.703104 0.372491 0.774721
160 1 0.910636 0.861742 0.466837
161 1 0.307537 0.376664 0.853186
162 1 0.0911051 0.603888 0.882156
163 1 0.739129 0.142607 0.876185
164 1 0.503895 0.271059 0.838868
165 1 0.203837 0.783023 0.622561
166 1 0.710838 0.758971 0.850737
167 1 0.650655 0.854334 0.595516
168 1 0.123389 0.503376 0.866843
169 1 0.450927 0.123119 0.665544
170 1 0.485166 0.483435 0.595868
171 1 0.658603 0.338837 0.520901
172 1 0.218902 0.188852 0.500256
173 1 0.300639 0.545092 0.522407
174 1 0.431106 0.900434 0.814208
175 1 0.405052 0.405591 0.605403
176 1 0.120848 0.0981986 0.861045
177 1 0.176723 0.484251 0.785731
178 1 0.0868007 0.259876 0.541813
179 1 0.0949817 0.0582289 0.781973
180 1 0.390068 0.574966 0.847457
181 1 0.465606 0.24541 0.438158
182 1 0.846015 0.169798 0.653871
183 1 0.223234 0.0953696 0.649045
184 1 0.192998 0.41372 0.872061
185 1 0.67311 0.253392 0.459163
186 1 0.698117 0.252189 0.890657
187 1 0.178075 0.699528 0.812196
188 1 0.742285 0.0857014 0.667499
189 1 0.943588 0.285537 0.862887
190 1 0.233387 0.632328 0.800429
191 1 0.492756 0.243533 0.55478
192 1 0.7835 0.692647 0.854154
193 1 0.904096 0.748645 0.858958
194 1 0.247449 0.269425 0.860283
195 1 0.159406 0.141204 0.888206
196 1 0.788595 0.822259 0.896468
197 1 0.384104 0.24169 0.653784
198 1 0.275358 0.435848 0.860983
199 1 0.30645 0.0972487 0.777175
200 1 0.0990845 0.613819 0.5537
201 1 0.567825 0.142719 0.669755
202 1 0.607553 0.940182 0.901965
203 1 0.356388 0.619638 0.87009
204 1 0.799377 0.22259 0.689254
205 1 0.131687 0.465916 0.553975
206 1 0.780231 0.643428 0.558312
207 1 0.630106 0.183261 0.721347
208 1 0.68722 0.699631 0.906647
209 1 0.887619 0.104748 0.750785
210 1 0.789054 0.43168 0.587629
211 1 0.557549 0.233783 0.651729
212 1 0.478656 0.871478 0.886358
213 1 0.125829 0.102983 0.669702
214 1 0.0755098 0.393943 0.677123
215 1 0.847811 0.654776 0.816401
216 1 0.647528 0.496637 0.561487
217 1 0.463709 0.752228 0.823412
218 1 0.500945 0.188663 0.90854
219 1 0.358797 0.599933 0.528788
220 1 0.433091 0.0587894 0.844989
221 1 0.67418 0.245866 0.540473
222 1 0.823772 0.730508 0.898254
223 1 0.270936 0.820035 0.861684
224 1 0.882406 0.691995 0.776313
225 1 0.832481 0.402506 0.8287
226 1 0.303474 0.489884 0.758455
227 1 0.59404 0.628852 0.733648
228 1 0.927685 0.306169 0.505113
229 1 0.913247 0.645336 0.719956
230 1 0.489528 0.898884 0.777592
231 1 0.796503 0.526725 0.862208
232 1 0.632841 0.263104 0.802354
233 1 0.740886 0.87218 0.782428
234 1 0.0832151 0.296963 0.751266
235 1 0.908661 0.0691397 0.689185
236 1 0.747381 0.225766 0.859184
237 1 0.337195 0.236716 0.835795
238 1 0.760343 0.27663 0.844501
239 1 0.297861 0.653388 0.87774
240 1 0.459257 0.637317 0.505697
241 1 0.584416 0.886691 0.616171
242 1 0.43412 0.254216 0.705686
243 1 0.611591 0.402591 0.872733
244 1 0.288139 0.156315 0.678302
245 1 0.845074 0.550723 0.442535
246 1 0.862678 0.331525 0.828581
247 1 0.525118 0.555493 0.654548
248 1 0.75069 0.0508245 0.826926
249 1 0.0854323 0.66054 0.775577
250 1 0.172038 0.938649 0.869037
251 1 0.207309 0.639725 0.695403
252 1 0.342126 0.313841 0.488891
253 1 0.591203 0.645165 0.618476
254 1 0.173541 0.107031 0.589085
255 1 0.460639 0.466039 0.520452
256 1 0.169736 0.0557456 0.897985
257 1 0.301356 0.893699 0.80726
258 1 0.753167 0.279346 0.687737
259 1 0.4665 0.860865 0.692164
260 1 0.475734 0.367331 0.676887
261 1 0.0656646 0.524534 0.895148
262 1 0.202212 0.469373 0.448878
263 1 0.448178 0.725342 0.47502
264 1 0.395793 0.492716 0.717691
265 1 0.532904 0.924081 0.877174
266 1 0.10361 0.166243 0.873823
267 1 0.656931 0.146446 0.569098
268 1 0.0922374 0.734376 0.487885
269 1 0.267312 0.20838 0.776331
270 1 0.319447 0.739864 0.640342
271 1 0.561298 0.24137 0.42499
272 1 0.931771 0.582587 0.896165
273 1 0.636126 0.57471 0.848778
274 1 0.625699 0.826875 0.863936
275 1 0.387311 0.137139 0.798976
276 1 0.723379 0.927806 0.595205
277 1 0.530004 0.785144 0.612439
278 1 0.667759 0.322187 0.901773
279 1 0.240178 0.470629 0.599591
280 1 0.789421 0.300835 0.521241
281 1 0.699896 0.455995 0.790704
282 1 0.487927 0.0836201 0.753527
283 1 0.0588944 0.137462 0.646043
284 1 0.945643 0.61504 0.552647
285 1 0.647786 0.334281 0.684178
286 1 0.508365 0.683498 0.497416
287 1 0.0711905 0.698794 0.891656
288 1 0.69275 0.943137 0.823628
289 1 0.790905 0.934872 0.760006
290 1 0.70191 0.101094 0.561645
291 1 0.551561 0.383539 0.792976
292 1 0.498883 0.624026 0.886267
293 1 0.465992 0.428814 0.753105
294 1 0.942937 0.142916 0.839415
295 1 0.908946 0.355884 0.681848
296 1 0.132663 0.673713 0.740668
297 1 0.778568 0.593623 0.784876
298 1 0.43535 0.230494 0.802425
299 1 0.305054 0.939627 0.888642
300 1 0.112989 0.313926 0.876787
301 1 0.555365 0.420575 0.620478
302 1 0.762073 0.555066 0.54141
303 1 0.502758 0.0524886 0.644214
304 1 0.875403 0.891946 0.866224
305 1 0.300463 0.278476 0.888571
306 1 0.488177 0.685446 0.853433
307 1 0.763278 0.116207 0.766606
308 1 0.756892 0.775692 0.485038
309 1 0.269803 0.681805 0.754935
310 1 0.66162 0.639411 0.668491
311 1 0.807875 0.851408 0.747531
312 1 0.507173 0.46297 0.822231
313 1 0.409467 0.80402 0.867177
314 1 0.281837 0.431006 0.671362
315 1 0.918541 0.513676 0.730017
316 1 0.225992 0.546474 0.716881
317 1 0.25717 0.748663 0.661321
318 1 0.347804 0.345278 0.900074
319 1 0.143207 0.583185 0.749775
320 1 0.219331 0.195048 0.629454
321 1 0.945442 0.841691 0.796445
322 1 0.40309 0.73345 0.792503
323 1 0.373285 0.202098 0.840475
324 1 0.144282 0.654845 0.85481
325 1 0.0972755 0.80897 0.90267
326 1 0.140379 0.75115 0.870692
327 1 0.676572 0.842953 0.898336
328 1 0.170403 0.463944 0.60808
329 1 0.853554 0.874814 0.709236
330 1 0.398731 0.380141 0.856667
331 1 0.827716 0.431055 0.415869
332 1 0.925138 0.694455 0.492274
333 1 0.86915 0.202418 0.861196
334 1 0.256447 0.300458 0.642688
335 1 0.230516 0.089904 0.763063
336 1 0.369083 0.67284 0.756763
337 1 0.284405 0.400548 0.755162
338 1 0.408832 0.945064 0.440848
339 1 0.348514 0.571063 0.751511
340 1 0.89067 0.0957981 0.505004
341 1 0.617863 0.526056 0.848775
342 1 0.948039 0.384368 0.419269
343 1 0.922646 0.203956 0.809074
344 1 0.148851 0.936797 0.553779
345 1 0.609399 0.469837 0.770873
346 1 0.201719 0.291233 0.854128
347 1 0.839882 0.600997 0.589257
348 1 0.5413 0.732904 0.885342
349 1 0.065868 0.342773 0.832845
350 1 0.349241 0.193087 0.735928
351 1 0.403126 0.439563 0.506476
352 1 0.934393 0.548332 0.508775
353 1 0.291056 0.58551 0.569439
354 1 0.314311 0.832708 0.805105
355 1 0.663396 0.789861 0.882325
356 1 0.306396 0.0917135 0.488981
357 1 0.21659 0.935378 0.569449
358 1 0.66118 0.450268 0.879466
359 1 0.591551 0.194196 0.782952
360 1 0.403598 0.279336 0.831767
361 1 0.217435 0.736331 0.44095
362 1 0.675536 0.532742 0.712552
363 1 0.371206 0.357522 0.769326
364 1 0.6528 0.906797 0.895626
365 1 0.699775 0.225977 0.637549
366 1 0.702972 0.84927 0.50318
367 1 0.63439 0.196408 0.892603
368 1 0.687831 0.169216 0.893495
369 1 0.280915 0.232597 0.571475
370 1 0.215144 0.932909 0.796972
371 1 0.349199 0.393461 0.592343
372 1 0.369687 0.92943 0.845488
373 1 0.577905 0.354695 0.880537
374 1 0.125816 0.782106 0.680889
375 1 0.351045 0.80848 0.887115
376 1 0.889732 0.521916 0.857897
377 1 0.0717521 0.238057 0.889121
378 1 0.206891 0.810172 0.747235
379 1 0.397678 0.67715 0.880087
380 1 0.408208 0.347536 0.627254
381 1 0.251922 0.755711 0.832512
382 1 0.0690855 0.420303 0.908931
383 1 0.0594808 0.0936016 0.888534
384 1 0.494891 0.136103 0.828774
385 1 0.650114 0.759903 0.486279
386 1 0.629334 0.724596 0.874172
387 1 0.153934 0.865133 0.636238
388 1 0.641164 0.637372 0.896174
389 1 0.0939923 0.528942 0.776211
390 1 0.503118 0.696314 0.577812
391 1 0.0579336 0.189501 0.795102
392 1 0.900195 0.876061 0.751362
393 1 0.598712 0.850584 0.762621
394 1 0.726182 0.334935 0.862354
395 1 0.242473 0.349172 0.617141
396 1 0.897778 0.754561 0.675998
397 1 0.909319 0.319882 0.778175
398 1 0.578549 0.378143 0.468338
399 1 0.392223 0.785857 0.750271
400 1 0.515413 0.348932 0.747569
401 1 0.437206 0.813238 0.541923
402 1 0.171672 0.189287 0.821186
ITEM: TIMESTEP
2000
ITEM: NUMBER OF ATOMS
402
ITEM: BOX BOUNDS pp pp fm
-1.0000000000000000e+01 1.0000000000000000e+01
-1.0000000000000000e+01 1.0000000000000000e+01
-5.0000000000000000e-01 1.6000000000000000e+01
ITEM: ATOMS id type xs ys zs
31 1 0.94342 0.159789 0.146278
271 1 0.561298 0.24137 0.14496
181 1 0.465606 0.24541 0.161346
77 1 0.556536 0.301369 0.137294
342 1 0.948039 0.384368 0.137855
331 1 0.827716 0.431055 0.133635
245 1 0.845074 0.550723 0.166801
361 1 0.217435 0.736331 0.164824
93 1 0.239508 0.911005 0.136434
100 1 0.853932 0.931987 0.168344
338 1 0.408832 0.945064 0.164697
94 1 0.747049 0.0511729 0.214971
185 1 0.67311 0.253392 0.18757
398 1 0.578549 0.378143 0.199062
48 1 0.295653 0.434834 0.184012
262 1 0.202212 0.469373 0.174715
133 1 0.311728 0.608796 0.175275
45 1 0.584346 0.608591 0.180916
263 1 0.448178 0.725342 0.207444
23 1 0.367647 0.837998 0.174871
110 1 0.551964 0.85737 0.212584
160 1 0.910636 0.861742 0.19718
90 1 0.143709 0.915533 0.211521
356 1 0.306396 0.0917135 0.224999
340 1 0.89067 0.0957981 0.245215
172 1 0.218902 0.188852 0.239217
20 1 0.739723 0.230761 0.228125
252 1 0.342126 0.313841 0.224886
66 1 0.53062 0.327548 0.228966
228 1 0.927685 0.306169 0.245354
24 1 0.313267 0.375642 0.242769
351 1 0.403126 0.439563 0.247076
352 1 0.934393 0.548332 0.249984
39 1 0.253948 0.60943 0.230583
240 1 0.459257 0.637317 0.246092
286 1 0.508365 0.683498 0.235632
19 1 0.578193 0.68959 0.254567
332 1 0.925138 0.694455 0.229147
268 1 0.0922374 0.734376 0.223618
385 1 0.650114 0.759903 0.221596
308 1 0.756892 0.775692 0.220035
366 1 0.702972 0.84927 0.24291
126 1 0.911337 0.946125 0.22977
51 1 0.121436 0.0828372 0.26394
58 1 0.480112 0.136241 0.302646
134 1 0.53243 0.145124 0.279703
178 1 0.0868007 0.259876 0.291962
191 1 0.492756 0.243533 0.308538
221 1 0.67418 0.245866 0.290252
280 1 0.789421 0.300835 0.265783
171 1 0.658603 0.338837 0.265351
137 1 0.890313 0.387565 0.294337
21 1 0.756711 0.448416 0.266483
205 1 0.131687 0.465916 0.307508
255 1 0.460639 0.466039 0.26478
173 1 0.300639 0.545092 0.267263
113 1 0.113165 0.563453 0.307155
302 1 0.762073 0.555066 0.291448
219 1 0.358797 0.599933 0.27537
200 1 0.0990845 0.613819 0.307156
284 1 0.945643 0.61504 0.305808
92 1 0.871645 0.740089 0.304817
401 1 0.437206 0.813238 0.292103
344 1 0.148851 0.936797 0.307257
5 1 0.840922 0.0688118 0.313192
254 1 0.173541 0.107031 0.352699
290 1 0.70191 0.101094 0.31734
8 1 0.290602 0.145836 0.35044
267 1 0.656931 0.146446 0.326915
369 1 0.280915 0.232597 0.329972
155 1 0.825245 0.289608 0.337976
111 1 0.827926 0.35833 0.347743
371 1 0.349199 0.393461 0.356917
9 1 0.176986 0.401644 0.311363
210 1 0.789054 0.43168 0.350814
216 1 0.647528 0.496637 0.317136
353 1 0.291056 0.58551 0.327352
1 1 0.439067 0.591622 0.343727
347 1 0.839882 0.600997 0.35292
206 1 0.780231 0.643428 0.313064
106 1 0.306431 0.691058 0.317001
390 1 0.503118 0.696314 0.338136
120 1 0.0600561 0.762132 0.33497
145 1 0.588212 0.777112 0.32728
156 1 0.280789 0.820696 0.318397
37 1 0.28904 0.896522 0.316071
357 1 0.21659 0.935378 0.327365
38 1 0.462327 0.934734 0.347713
108 1 0.548703 0.945862 0.324714
3 1 0.422006 0.0628532 0.390981
320 1 0.219331 0.195048 0.405304
146 1 0.793753 0.205183 0.369162
91 1 0.433746 0.272398 0.37584
395 1 0.242473 0.349172 0.389179
380 1 0.408208 0.347536 0.402418
175 1 0.405052 0.405591 0.373873
301 1 0.555365 0.420575 0.393542
328 1 0.170403 0.463944 0.377359
279 1 0.240178 0.470629 0.366318
170 1 0.485166 0.483435 0.361486
43 1 0.240024 0.583262 0.361251
253 1 0.591203 0.645165 0.390923
7 1 0.144874 0.695735 0.393418
74 1 0.445284 0.688758 0.360592
42 1 0.622156 0.684022 0.406479
102 1 0.232696 0.72163 0.364683
165 1 0.203837 0.783023 0.396267
277 1 0.530004 0.785144 0.38304
104 1 0.852373 0.836227 0.365145
167 1 0.650655 0.854334 0.361029
241 1 0.584416 0.886691 0.387912
276 1 0.723379 0.927806 0.360626
303 1 0.502758 0.0524886 0.424735
183 1 0.223234 0.0953696 0.431121
283 1 0.0588944 0.137462 0.427152
169 1 0.450927 0.123119 0.453028
103 1 0.122995 0.175886 0.416641
182 1 0.846015 0.169798 0.437513
197 1 0.384104 0.24169 0.437397
211 1 0.557549 0.233783 0.434675
365 1 0.699775 0.225977 0.415948
125 1 0.056866 0.246875 0.442876
139 1 0.157326 0.27368 0.441855
334 1 0.256447 0.300458 0.422721
144 1 0.616247 0.371284 0.439001
29 1 0.843084 0.416795 0.440247
143 1 0.555958 0.481046 0.423557
130 1 0.729512 0.514456 0.414191
247 1 0.525118 0.555493 0.438411
317 1 0.25717 0.748663 0.447407
270 1 0.319447 0.739864 0.419628
33 1 0.498141 0.752732 0.443637
112 1 0.94876 0.800947 0.415461
387 1 0.153934 0.865133 0.414221
96 1 0.780944 0.921492 0.430578
36 1 0.9108 0.920054 0.409805
105 1 0.404067 0.949298 0.42116
147 1 0.35807 0.0758874 0.486385
81 1 0.590098 0.0797745 0.491403
188 1 0.742285 0.0857014 0.455635
235 1 0.908661 0.0691397 0.484712
213 1 0.125829 0.102983 0.458575
201 1 0.567825 0.142719 0.458645
244 1 0.288139 0.156315 0.470081
152 1 0.391705 0.178282 0.481228
204 1 0.799377 0.22259 0.484805
64 1 0.910921 0.245261 0.485978
258 1 0.753167 0.279346 0.48276
285 1 0.647786 0.334281 0.477971
295 1 0.908946 0.355884 0.47484
260 1 0.475734 0.367331 0.468186
214 1 0.0755098 0.393943 0.468501
53 1 0.161781 0.448561 0.495491
314 1 0.281837 0.431006 0.460792
60 1 0.795756 0.5663 0.499988
18 1 0.388089 0.611194 0.472703
251 1 0.207309 0.639725 0.493107
310 1 0.66162 0.639411 0.456959
46 1 0.417282 0.75166 0.49561
396 1 0.897778 0.754561 0.466995
374 1 0.125816 0.782106 0.473552
98 1 0.783776 0.815688 0.478944
259 1 0.4665 0.860865 0.48873
61 1 0.331507 0.945393 0.462601
16 1 0.835889 0.0832998 0.534952
65 1 0.222705 0.195431 0.547257
350 1 0.349241 0.193087 0.548563
207 1 0.630106 0.183261 0.528453
242 1 0.43412 0.254216 0.507054
28 1 0.813143 0.291482 0.543241
136 1 0.403065 0.314073 0.522112
119 1 0.66048 0.393075 0.548337
264 1 0.395793 0.492716 0.523438
47 1 0.515958 0.504432 0.541935
315 1 0.918541 0.513676 0.540387
362 1 0.675536 0.532742 0.516411
27 1 0.868099 0.53256 0.53811
316 1 0.225992 0.546474 0.522329
150 1 0.438637 0.570979 0.529789
71 1 0.274993 0.605547 0.531639
227 1 0.59404 0.628852 0.545406
229 1 0.913247 0.645336 0.526543
296 1 0.132663 0.673713 0.555143
121 1 0.486356 0.679971 0.545931
35 1 0.696966 0.711861 0.507128
12 1 0.264187 0.788713 0.539009
17 1 0.713572 0.803124 0.524434
329 1 0.853554 0.874814 0.511887
132 1 0.655264 0.929945 0.50839
335 1 0.230516 0.089904 0.586545
282 1 0.487927 0.0836201 0.573108
199 1 0.30645 0.0972487 0.606631
307 1 0.763278 0.116207 0.591565
209 1 0.887619 0.104748 0.569264
269 1 0.267312 0.20838 0.605422
72 1 0.703309 0.213903 0.595143
234 1 0.0832151 0.296963 0.569936
52 1 0.279097 0.282472 0.586577
99 1 0.774054 0.329886 0.58369
397 1 0.909319 0.319882 0.608064
49 1 0.139712 0.339134 0.583229
363 1 0.371206 0.357522 0.595428
400 1 0.515413 0.348932 0.564763
95 1 0.168524 0.383159 0.60064
159 1 0.703104 0.372491 0.603119
337 1 0.284405 0.400548 0.575405
293 1 0.465992 0.428814 0.572515
345 1 0.609399 0.469837 0.597631
226 1 0.303474 0.489884 0.58004
389 1 0.0939923 0.528942 0.60525
339 1 0.348514 0.571063 0.570281
319 1 0.143207 0.583185 0.567849
107 1 0.858838 0.587298 0.603616
79 1 0.514787 0.628541 0.580079
86 1 0.689196 0.612709 0.582814
249 1 0.0854323 0.66054 0.604344
309 1 0.269803 0.681805 0.575086
336 1 0.369083 0.67284 0.577657
224 1 0.882406 0.691995 0.605396
2 1 0.0544323 0.744386 0.59263
59 1 0.816114 0.730622 0.556527
54 1 0.197249 0.760509 0.602086
399 1 0.392223 0.785857 0.568544
154 1 0.536965 0.772494 0.600624
378 1 0.206891 0.810172 0.564297
141 1 0.26644 0.861333 0.582676
393 1 0.598712 0.850584 0.58592
88 1 0.679679 0.858881 0.583245
311 1 0.807875 0.851408 0.56471
392 1 0.900195 0.876061 0.570072
230 1 0.489528 0.898884 0.607227
289 1 0.790905 0.934872 0.582227
179 1 0.0949817 0.0582289 0.613518
123 1 0.3804 0.0783924 0.628583
275 1 0.387311 0.137139 0.638195
114 1 0.613396 0.14861 0.660709
115 1 0.769922 0.180538 0.611805
391 1 0.0579336 0.189501 0.632533
359 1 0.591551 0.194196 0.614927
343 1 0.922646 0.203956 0.653071
148 1 0.194219 0.24177 0.652961
298 1 0.43535 0.230494 0.643257
232 1 0.632841 0.263104 0.643151
291 1 0.551561 0.383539 0.629436
41 1 0.939203 0.376957 0.628634
157 1 0.557508 0.441912 0.636774
177 1 0.176723 0.484251 0.618935
281 1 0.699896 0.455995 0.626135
40 1 0.572025 0.519762 0.608355
68 1 0.7255 0.572134 0.623767
34 1 0.524584 0.581827 0.634791
297 1 0.778568 0.593623 0.617701
190 1 0.233387 0.632328 0.640324
128 1 0.736267 0.635648 0.616885
10 1 0.650377 0.679747 0.610722
187 1 0.178075 0.699528 0.657709
322 1 0.40309 0.73345 0.628748
6 1 0.608346 0.772713 0.633013
149 1 0.832826 0.803182 0.659172
354 1 0.314311 0.832708 0.647203
321 1 0.945442 0.841691 0.634493
83 1 0.121429 0.865587 0.618768
57 1 0.198218 0.85586 0.65014
233 1 0.740886 0.87218 0.614173
257 1 0.301356 0.893699 0.650385
174 1 0.431106 0.900434 0.660707
370 1 0.215144 0.932909 0.635263
220 1 0.433091 0.0587894 0.7077
248 1 0.75069 0.0508245 0.67985
73 1 0.230199 0.146747 0.684917
384 1 0.494891 0.136103 0.682662
294 1 0.942937 0.142916 0.699014
14 1 0.448627 0.169137 0.718371
402 1 0.171672 0.189287 0.671167
323 1 0.373285 0.202098 0.700659
237 1 0.337195 0.236716 0.693419
164 1 0.503895 0.271059 0.698165
360 1 0.403598 0.279336 0.687232
78 1 0.579454 0.288252 0.670715
238 1 0.760343 0.27663 0.706937
246 1 0.862678 0.331525 0.682368
349 1 0.065868 0.342773 0.688884
225 1 0.832481 0.402506 0.682549
312 1 0.507173 0.46297 0.672743
80 1 0.834305 0.470396 0.690886
127 1 0.934443 0.478541 0.663841
55 1 0.475209 0.536237 0.664092
341 1 0.617863 0.526056 0.713654
131 1 0.69326 0.526404 0.669484
180 1 0.390068 0.574966 0.711577
273 1 0.636126 0.57471 0.713659
215 1 0.847811 0.654776 0.663984
118 1 0.944256 0.70952 0.69445
381 1 0.251922 0.755711 0.688373
217 1 0.463709 0.752228 0.674526
63 1 0.328123 0.767649 0.673231
166 1 0.710838 0.758971 0.716758
135 1 0.538789 0.823324 0.690211
109 1 0.104029 0.911349 0.713864
372 1 0.369687 0.92943 0.708483
87 1 0.910694 0.938475 0.705549
288 1 0.69275 0.943137 0.674852
89 1 0.554649 0.0882742 0.728911
153 1 0.650876 0.072382 0.778455
122 1 0.830588 0.085115 0.747882
25 1 0.908716 0.0839797 0.750474
383 1 0.0594808 0.0936016 0.779707
176 1 0.120848 0.0981986 0.733278
195 1 0.159406 0.141204 0.779127
163 1 0.739129 0.142607 0.758342
124 1 0.825772 0.150658 0.754423
140 1 0.87616 0.122112 0.750934
266 1 0.10361 0.166243 0.754358
82 1 0.552084 0.170201 0.775555
333 1 0.86915 0.202418 0.733523
377 1 0.0717521 0.238057 0.78075
236 1 0.747381 0.225766 0.730266
69 1 0.148435 0.249161 0.777114
194 1 0.247449 0.269425 0.732045
346 1 0.201719 0.291233 0.72215
305 1 0.300463 0.278476 0.779773
189 1 0.943588 0.285537 0.736274
300 1 0.112989 0.313926 0.759362
85 1 0.433375 0.32572 0.732666
97 1 0.500739 0.327711 0.76007
373 1 0.577905 0.354695 0.765761
394 1 0.726182 0.334935 0.735405
138 1 0.795046 0.34093 0.774672
161 1 0.307537 0.376664 0.720648
330 1 0.398731 0.380141 0.726215
116 1 0.122044 0.400496 0.76798
184 1 0.192998 0.41372 0.751407
243 1 0.611591 0.402591 0.752531
198 1 0.275358 0.435848 0.733178
358 1 0.66118 0.450268 0.763925
76 1 0.78006 0.474206 0.765483
168 1 0.123389 0.503376 0.742752
30 1 0.300532 0.542664 0.762618
13 1 0.525919 0.516009 0.720763
231 1 0.796503 0.526725 0.735167
376 1 0.889732 0.521916 0.728191
151 1 0.445706 0.574471 0.720245
162 1 0.0911051 0.603888 0.76855
203 1 0.356388 0.619638 0.748122
292 1 0.498883 0.624026 0.775709
324 1 0.144282 0.654845 0.723239
239 1 0.297861 0.653388 0.76098
379 1 0.397678 0.67715 0.764989
306 1 0.488177 0.685446 0.721042
192 1 0.7835 0.692647 0.722192
22 1 0.327423 0.703144 0.747922
386 1 0.629334 0.724596 0.754945
326 1 0.140379 0.75115 0.749124
348 1 0.5413 0.732904 0.774088
193 1 0.904096 0.748645 0.729902
375 1 0.351045 0.80848 0.777201
313 1 0.409467 0.80402 0.743303
117 1 0.487059 0.80251 0.729657
355 1 0.663396 0.789861 0.768842
62 1 0.162017 0.822551 0.730436
223 1 0.270936 0.820035 0.734317
274 1 0.625699 0.826875 0.737985
212 1 0.478656 0.871478 0.775869
67 1 0.591269 0.865471 0.778247
11 1 0.765253 0.908936 0.763017
304 1 0.875403 0.891946 0.741735
250 1 0.172038 0.938649 0.746376
265 1 0.532904 0.924081 0.760019
70 1 0.823945 0.936231 0.753662
299 1 0.305054 0.939627 0.779899
256 1 0.169736 0.0557456 0.79683
15 1 0.329212 0.166653 0.796652
368 1 0.687831 0.169216 0.788597
218 1 0.500945 0.188663 0.817083
367 1 0.63439 0.196408 0.786984
75 1 0.816618 0.203816 0.791109
142 1 0.553587 0.239442 0.801528
186 1 0.698117 0.252189 0.783488
278 1 0.667759 0.322187 0.803939
318 1 0.347804 0.345278 0.800732
26 1 0.224589 0.365044 0.815441
382 1 0.0690855 0.420303 0.817863
32 1 0.453728 0.40239 0.792888
44 1 0.736362 0.434188 0.817403
101 1 0.412661 0.497526 0.781964
261 1 0.0656646 0.524534 0.791606
4 1 0.231346 0.538797 0.790579
50 1 0.584826 0.570397 0.785216
272 1 0.931771 0.582587 0.793471
158 1 0.442283 0.642688 0.802259
388 1 0.641164 0.637372 0.793487
56 1 0.920851 0.637179 0.787104
129 1 0.597898 0.679066 0.781665
287 1 0.0711905 0.698794 0.785279
208 1 0.68722 0.699631 0.813339
222 1 0.823772 0.730508 0.797331
325 1 0.0972755 0.80897 0.805645
327 1 0.676572 0.842953 0.797483
196 1 0.788595 0.822259 0.794026
84 1 0.867795 0.827559 0.816952
364 1 0.6528 0.906797 0.792481
202 1 0.607553 0.940182 0.804303
ITEM: TIMESTEP
3000
ITEM: NUMBER OF ATOMS
402
ITEM: BOX BOUNDS pp pp fm
-1.0000000000000000e+01 1.0000000000000000e+01
-1.0000000000000000e+01 1.0000000000000000e+01
-5.0000000000000000e-01 1.6000000000000000e+01
ITEM: ATOMS id type xs ys zs
31 1 0.94342 0.159789 0.10059
271 1 0.565157 0.241275 0.0959879
77 1 0.573918 0.28381 0.0633912
342 1 0.948039 0.384368 0.101621
331 1 0.843983 0.430791 0.0725221
93 1 0.241699 0.90303 0.0643217
181 1 0.455001 0.24328 0.0599834
185 1 0.669607 0.258274 0.0604078
48 1 0.295653 0.434834 0.0953534
262 1 0.198845 0.470312 0.0588978
245 1 0.845074 0.550723 0.0954371
133 1 0.308233 0.61842 0.0654076
45 1 0.583244 0.602715 0.0843587
361 1 0.210211 0.74329 0.0605642
23 1 0.367647 0.837998 0.0967216
100 1 0.853932 0.931987 0.0952468
338 1 0.409308 0.944642 0.0874985
94 1 0.747049 0.0511729 0.088458
356 1 0.306396 0.0917135 0.0884304
252 1 0.342126 0.313841 0.0884635
398 1 0.578569 0.378107 0.0929379
263 1 0.4492 0.738262 0.0666464
268 1 0.103587 0.724588 0.0664771
385 1 0.650114 0.759903 0.0890733
308 1 0.756892 0.775692 0.0876312
110 1 0.549738 0.855358 0.086582
160 1 0.910636 0.861742 0.0932891
90 1 0.141863 0.907899 0.0651522
340 1 0.89067 0.0957981 0.0831513
172 1 0.218826 0.187758 0.07102
20 1 0.739723 0.230761 0.0878592
66 1 0.494528 0.364007 0.0700637
228 1 0.927685 0.306169 0.0844975
24 1 0.303475 0.370787 0.066833
351 1 0.402636 0.448211 0.0654666
352 1 0.934393 0.548332 0.0835512
39 1 0.258483 0.618296 0.0598344
240 1 0.460583 0.63343 0.0779573
286 1 0.509967 0.679584 0.0606768
19 1 0.578193 0.68959 0.0825988
332 1 0.925138 0.694455 0.0860662
366 1 0.702972 0.84927 0.0835884
126 1 0.911368 0.947612 0.0817928
51 1 0.121436 0.0828372 0.0794669
134 1 0.53243 0.145124 0.0770217
178 1 0.0868007 0.259876 0.0733645
221 1 0.671385 0.235411 0.114277
280 1 0.778372 0.304297 0.0616535
171 1 0.658603 0.338837 0.0791729
137 1 0.890313 0.387565 0.0735052
21 1 0.750407 0.452562 0.0607246
255 1 0.454122 0.461416 0.0611773
173 1 0.306052 0.535669 0.0606634
302 1 0.762073 0.555066 0.0742201
219 1 0.375669 0.596756 0.0749472
401 1 0.437206 0.813238 0.0740551
5 1 0.840922 0.0688118 0.0686696
290 1 0.70191 0.101094 0.0675574
58 1 0.480112 0.136241 0.0714193
267 1 0.656931 0.146446 0.0649242
369 1 0.280915 0.232597 0.0640624
191 1 0.514514 0.241857 0.0802952
9 1 0.176986 0.401644 0.0691512
205 1 0.130097 0.466082 0.0664383
216 1 0.647528 0.496637 0.0676106
113 1 0.113165 0.563453 0.0702552
353 1 0.284 0.58034 0.0944013
200 1 0.0990845 0.613819 0.070255
284 1 0.945643 0.61504 0.0706029
206 1 0.780231 0.643428 0.0682794
106 1 0.306431 0.691058 0.0676506
92 1 0.871645 0.740089 0.0703222
120 1 0.0486717 0.77195 0.0584549
145 1 0.588212 0.777112 0.0648205
156 1 0.280789 0.820696 0.0672724
37 1 0.304542 0.89226 0.0652114
344 1 0.152631 0.959037 0.0857372
357 1 0.202072 0.952283 0.0784788
108 1 0.548703 0.945862 0.065538
254 1 0.173541 0.107031 0.0575853
8 1 0.290602 0.145836 0.0575542
146 1 0.793753 0.205183 0.0759376
155 1 0.840353 0.284873 0.0671237
111 1 0.827926 0.35833 0.0583105
371 1 0.358977 0.398315 0.0790653
210 1 0.780663 0.426838 0.107234